! TOUCHSTONE file generated by CST MICROWAVE STUDIO
! Date and time: Mon Apr  6 12:04:22 2026
! Project name: dipole2.cst
! Parameters = {L=80; N=5; gap=5; r=1}
! Header version: 2018
! Port assignment regex: !\s*Touchstone port\s*([0-9]+)\s*=\s*(CST MWS port|CST DS port)\s*([0-9]+|Zmin|Zmax)\s*\(\"(.*)\"\)(\s*mode\s*([0-9]+))?.*
! Touchstone port assignment:
! Touchstone port 1 = CST MWS port 1 ("")
! Touchstone port 2 = CST MWS port 2 ("")
# GHz S MA R 50
0                              1              -0     0.0001961361             180     0.0004832839             180                1              -0
0.0015                 0.9999972     -0.08117387     0.0002965847        131.2468       0.00053664        154.0305        0.9999985     -0.07194938
0.003                  0.9999889      -0.1623303     0.0004862248        113.4832     0.0006717146        135.6053         0.999994      -0.1438914
0.0045                 0.9999752       -0.243452     0.0006955169        105.9197      0.000850353        124.0252        0.9999865      -0.2158188
0.006                   0.999956      -0.3245217     0.0009109414        101.8211      0.001050469        116.5799        0.9999761      -0.2877243
0.0075                 0.9999316      -0.4055224       0.00112891        99.24035      0.001261779        111.5075        0.9999626      -0.3596006
0.009                  0.9999017      -0.4864373      0.001348098        97.44905      0.001479375        107.8528        0.9999461      -0.4314406
0.0105                 0.9998667      -0.5672498      0.001567903        96.11856      0.001700722        105.0936        0.9999269      -0.5032372
0.012                  0.9998268      -0.6479441      0.001788001        95.07996      0.001924398        102.9295        0.9999049      -0.5749834
0.0135                 0.9997818      -0.7285041      0.002008198         94.2378      0.002149542        101.1789        0.9998799      -0.6466724
0.015                   0.999732      -0.8089148      0.002228367        93.53429      0.002375603        99.72604        0.9998522      -0.7182974
0.0165                 0.9996778      -0.8891614      0.002448419        92.93238      0.002602207        98.49455        0.9998219      -0.7898518
0.018                  0.9996192      -0.9692299      0.002668283        92.40728      0.002829085        97.43187        0.9997888      -0.8613292
0.0195                 0.9995561       -1.049107      0.002887908        91.94176      0.003056041        96.50094        0.9997534      -0.9327233
0.021                  0.9994892       -1.128779      0.003107247        91.52351      0.003282923        95.67479        0.9997152       -1.004028
0.0225                 0.9994186       -1.208236      0.003326264        91.14356      0.003509608        94.93346        0.9996747       -1.075238
0.024                  0.9993443       -1.287464      0.003544926        90.79509      0.003735999        94.26187        0.9996319       -1.146347
0.0255                 0.9992668       -1.366454      0.003763204          90.473      0.003962013        93.64832         0.999587        -1.21735
0.027                  0.9991863       -1.445197      0.003981074        90.17329      0.004187579        93.08374        0.9995399       -1.288241
0.0285                  0.999103       -1.523684      0.004198515        89.89278      0.004412637        92.56096        0.9994907       -1.359017
0.03                   0.9990174       -1.601906      0.004415505        89.62903      0.004637134        92.07418        0.9994397       -1.429671
0.0315                 0.9989295       -1.679858       0.00463203        89.37997      0.004861021        91.61872        0.9993869         -1.5002
0.033                  0.9988398       -1.757533      0.004848074          89.144      0.005084258        91.19077        0.9993322         -1.5706
0.0345                 0.9987485       -1.834926      0.005063625        88.91978      0.005306806        90.78717         0.999276       -1.640867
0.036                  0.9986562       -1.912035      0.005278673        88.70618      0.005528634        90.40532        0.9992184       -1.710997
0.0375                 0.9985628       -1.988855       0.00549321        88.50227       0.00574971        90.04299        0.9991594       -1.780989
0.039                  0.9984687       -2.065387      0.005707231        88.30731      0.005970007        89.69838        0.9990992       -1.850837
0.0405                 0.9983745       -2.141628      0.005920732         88.1206      0.006189502        89.36989        0.9990379       -1.920541
0.042                  0.9982803       -2.217581      0.006133711        87.94159      0.006408175         89.0562        0.9989756       -1.990098
0.0435                 0.9981865       -2.293245      0.006346169        87.76982      0.006626007        88.75616        0.9989126       -2.059507
0.045                  0.9980932       -2.368625      0.006558109        87.60486      0.006842982        88.46877        0.9988488       -2.128765
0.0465                 0.9980011       -2.443724      0.006769534        87.44636      0.007059087        88.19321        0.9987844       -2.197873
0.048                  0.9979104       -2.518547      0.006980453        87.29401      0.007274314        87.92872        0.9987199       -2.266828
0.0495                 0.9978212         -2.5931      0.007190874         87.1475      0.007488653        87.67469        0.9986548       -2.335632
0.051                   0.997734       -2.667389      0.007400807        87.00662        0.0077021         87.4305        0.9985896       -2.404283
0.0525                  0.997649       -2.741424      0.007610266        86.87114      0.007914651        87.19571        0.9985245       -2.472784
0.054                  0.9975666       -2.815213      0.007819265        86.74086      0.008126306        86.96983        0.9984594       -2.541133
0.0555                 0.9974869       -2.888766      0.008027821        86.61558      0.008337066        86.75251        0.9983947       -2.609333
0.057                  0.9974104       -2.962095      0.008235953        86.49515      0.008546938         86.5434        0.9983304       -2.677385
0.0585                 0.9973373       -3.035211      0.008443682        86.37942      0.008755926        86.34219        0.9982665       -2.745291
0.06                   0.9972678       -3.108127      0.008651028        86.26825      0.008964041        86.14861        0.9982034       -2.813054
0.0615                 0.9972021       -3.180857      0.008858017        86.16147      0.009171294        85.96238        0.9981412       -2.880675
0.063                  0.9971404       -3.253415      0.009064675        86.05896      0.009377698        85.78331        0.9980799       -2.948158
0.0645                 0.9970831       -3.325817      0.009271029        85.96062       0.00958327        85.61116        0.9980197       -3.015506
0.066                  0.9970304       -3.398078      0.009477107        85.86628      0.009788026        85.44577        0.9979607       -3.082723
0.0675                 0.9969822       -3.470216       0.00968294        85.77586      0.009991991        85.28694        0.9979029       -3.149814
0.069                  0.9969389       -3.542247      0.009888561        85.68921       0.01019518        85.13455        0.9978468       -3.216782
0.0705                 0.9969004        -3.61419         0.010094        85.60624       0.01039763        84.98838        0.9977922       -3.283632
0.072                  0.9968673       -3.686061        0.0102993        85.52682       0.01059936        84.84836        0.9977392        -3.35037
0.0735                 0.9968392       -3.757881       0.01050448        85.45081       0.01080041        84.71427        0.9976881          -3.417
0.075                  0.9968165       -3.829669        0.0107096        85.37813        0.0110008        84.58607        0.9976389       -3.483529
0.0765                 0.9967993       -3.901444       0.01091467        85.30864       0.01120056        84.46356        0.9975918       -3.549962
0.078                  0.9967875       -3.973224       0.01111975         85.2422       0.01139974        84.34666        0.9975467       -3.616305
0.0795                 0.9967811       -4.045031       0.01132487        85.17872       0.01159836        84.23523        0.9975039       -3.682566
0.081                  0.9967802       -4.116885       0.01153008        85.11807       0.01179648        84.12916        0.9974634       -3.748751
0.0825                  0.996785       -4.188804        0.0117354        85.06013       0.01199412        84.02833        0.9974254       -3.814866
0.084                  0.9967951        -4.26081       0.01194088        85.00475       0.01219134        83.93262        0.9973897        -3.88092
0.0855                 0.9968108       -4.332922       0.01214657        84.95181       0.01238818        83.84192        0.9973567       -3.946919
0.087                  0.9968318        -4.40516        0.0123525         84.9012       0.01258468        83.75613        0.9973262       -4.012871
0.0885                 0.9968582       -4.477543       0.01255871        84.85276        0.0127809         83.6751        0.9972984       -4.078785
0.09                   0.9968897       -4.550092       0.01276525         84.8064       0.01297688        83.59871        0.9972733       -4.144668
0.0915                 0.9969264       -4.622824       0.01297215        84.76193       0.01317266        83.52687        0.9972512       -4.210528
0.093                   0.996968       -4.695757       0.01317946        84.71926       0.01336831        83.45943        0.9972318       -4.276373
0.0945                 0.9970144       -4.768913        0.0133872        84.67824       0.01356388        83.39629        0.9972153       -4.342213
0.096                  0.9970657       -4.842304       0.01359543        84.63873       0.01375941        83.33731        0.9972017       -4.408055
0.0975                 0.9971213       -4.915952       0.01380418        84.60059       0.01395496        83.28234         0.997191       -4.473909
0.099                  0.9971812       -4.989869       0.01401349        84.56371       0.01415059        83.23127        0.9971833       -4.539783
0.1005                 0.9972451       -5.064074       0.01422339         84.5279       0.01434636        83.18398        0.9971786       -4.605685
0.102                  0.9973128       -5.138581       0.01443392        84.49308       0.01454231        83.14029        0.9971768       -4.671625
0.1035                 0.9973842       -5.213404       0.01464511        84.45907       0.01473851        83.10011        0.9971781       -4.737611
0.105                  0.9974589       -5.288554       0.01485699        84.42579       0.01493502        83.06325        0.9971823       -4.803651
0.1065                 0.9975366       -5.364048        0.0150696        84.39303       0.01513188        83.02961        0.9971894       -4.869756
0.108                  0.9976171       -5.439893       0.01528295        84.36073       0.01532915        82.99899        0.9971996       -4.935934
0.1095                 0.9977001       -5.516103        0.0154971        84.32872       0.01552691        82.97129        0.9972125       -5.002193
0.111                  0.9977853       -5.592685       0.01571205        84.29687       0.01572518        82.94635        0.9972284       -5.068542
0.1125                 0.9978723       -5.669648       0.01592783        84.26506       0.01592405        82.92397        0.9972472       -5.134989
0.114                  0.9979609       -5.747001       0.01614446        84.23318       0.01612355        82.90404        0.9972688       -5.201543
0.1155                 0.9980508       -5.824749       0.01636197        84.20108       0.01632375        82.88638         0.997293       -5.268213
0.117                  0.9981415       -5.902897       0.01658037        84.16868        0.0165247        82.87086        0.9973199       -5.335006
0.1185                 0.9982327       -5.981451       0.01679968        84.13584       0.01672645        82.85728        0.9973495       -5.401929
0.12                   0.9983244       -6.060411       0.01701992        84.10242       0.01692905        82.84549        0.9973816       -5.468993
0.1215                 0.9984158       -6.139782       0.01724109        84.06838       0.01713256        82.83534        0.9974161       -5.536203
0.123                  0.9985068       -6.219564       0.01746321        84.03356       0.01733702        82.82667        0.9974532       -5.603567
0.1245                 0.9985972       -6.299757       0.01768628        83.99789       0.01754249         82.8193        0.9974926       -5.671093
0.126                  0.9986863       -6.380358       0.01791031        83.96128         0.017749        82.81307        0.9975341       -5.738788
0.1275                  0.998774       -6.461366       0.01813531        83.92361       0.01795661        82.80783        0.9975777       -5.806658
0.129                    0.99886       -6.542778       0.01836127        83.88481       0.01816535        82.80342        0.9976234       -5.874709
0.1305                 0.9989439       -6.624587       0.01858819        83.84482       0.01837527        82.79966        0.9976709       -5.942948
0.132                  0.9990254        -6.70679       0.01881608        83.80353       0.01858641        82.79638        0.9977202       -6.011382
0.1335                  0.999104       -6.789378       0.01904492        83.76089        0.0187988        82.79347        0.9977712       -6.080015
0.135                  0.9991799       -6.872345       0.01927471        83.71685       0.01901248        82.79074        0.9978238       -6.148852
0.1365                 0.9992524       -6.955681       0.01950544         83.6713       0.01922748        82.78805        0.9978778         -6.2179
0.138                  0.9993212       -7.039376        0.0197371        83.62423       0.01944383        82.78523        0.9979332       -6.287161
0.1395                 0.9993863       -7.123421       0.01996968        83.57557       0.01966156        82.78213        0.9979897       -6.356642
0.141                  0.9994471       -7.207804       0.02020316        83.52529       0.01988071        82.77865        0.9980472       -6.426346
0.1425                 0.9995037       -7.292512       0.02043752        83.47334       0.02010128        82.77459        0.9981056       -6.496275
0.144                  0.9995557        -7.37753       0.02067275        83.41969        0.0203233        82.76985        0.9981648       -6.566434
0.1455                 0.9996028       -7.462849       0.02090882        83.36433       0.02054679        82.76427        0.9982247       -6.636826
0.147                   0.999645        -7.54845       0.02114572         83.3072       0.02077177        82.75774        0.9982851       -6.707452
0.1485                  0.999682       -7.634322       0.02138342        83.24832       0.02099824        82.75013        0.9983457       -6.778317
0.15                   0.9997138       -7.720442       0.02162189        83.18767       0.02122623         82.7413        0.9984065        -6.84942
0.1515                 0.9997398       -7.806801       0.02186111        83.12521       0.02145573        82.73117        0.9984675       -6.920764
0.153                  0.9997604       -7.893379       0.02210105          83.061       0.02168675        82.71957        0.9985284       -6.992348
0.1545                 0.9997751        -7.98016       0.02234168          82.995        0.0219193        82.70644         0.998589       -7.064175
0.156                  0.9997841       -8.067126       0.02258298        82.92722       0.02215337        82.69168        0.9986492       -7.136244
0.1575                  0.999787       -8.154256       0.02282491        82.85769       0.02238896        82.67516        0.9987089       -7.208556
0.159                  0.9997842       -8.241538       0.02306744        82.78644       0.02262607         82.6568        0.9987679       -7.281108
0.1605                 0.9997753        -8.32895       0.02331053        82.71345       0.02286469        82.63653         0.998826       -7.353902
0.162                  0.9997602       -8.416473       0.02355417        82.63878        0.0231048        82.61428        0.9988832       -7.426935
0.1635                 0.9997393       -8.504091        0.0237983        82.56245        0.0233464        82.58993        0.9989393       -7.500205
0.165                  0.9997124       -8.591786       0.02404291         82.4845       0.02358947        82.56344        0.9989943       -7.573711
0.1665                 0.9996795       -8.679535       0.02428795        82.40496         0.023834        82.53474        0.9990478       -7.647451
0.168                  0.9996407       -8.767328        0.0245334        82.32388       0.02407996        82.50378        0.9990997       -7.721421
0.1695                 0.9995962        -8.85514       0.02477921        82.24131       0.02432732         82.4705        0.9991501       -7.795619
0.171                  0.9995461       -8.942956       0.02502535        82.15729       0.02457608        82.43486        0.9991987       -7.870041
0.1725                 0.9994902        -9.03076        0.0252718        82.07186       0.02482619        82.39682        0.9992454       -7.944681
0.174                  0.9994291       -9.118534       0.02551851        81.98512       0.02507763        82.35633        0.9992899       -8.019539
0.1755                 0.9993627       -9.206262       0.02576546        81.89706       0.02533038        82.31338        0.9993324       -8.094608
0.177                  0.9992912       -9.293929       0.02601261        81.80781       0.02558438        82.26792        0.9993727       -8.169885
0.1785                 0.9992149       -9.381519       0.02625993         81.7174       0.02583963        82.21997        0.9994106       -8.245363
0.18                   0.9991338       -9.469021       0.02650738        81.62588       0.02609607        82.16948         0.999446       -8.321039
0.1815                 0.9990484       -9.556416       0.02675495        81.53334       0.02635367        82.11648         0.999479       -8.396905
0.183                  0.9989587       -9.643695        0.0270026        81.43985       0.02661239        82.06092         0.999509       -8.472956
0.1845                 0.9988653       -9.730845       0.02725031        81.34546       0.02687219        82.00284        0.9995364       -8.549188
0.186                   0.998768       -9.817854       0.02749804        81.25025       0.02713302        81.94224        0.9995611        -8.62559
0.1875                 0.9986674       -9.904713       0.02774578        81.15429       0.02739485        81.87911        0.9995829       -8.702159
0.189                  0.9985637       -9.991414       0.02799349        81.05766       0.02765763        81.81352        0.9996015       -8.778889
0.1905                 0.9984574       -10.07795       0.02824116        80.96043       0.02792132        81.74542        0.9996173       -8.855771
0.192                  0.9983485        -10.1643       0.02848877        80.86267       0.02818586        81.67489        0.9996296         -8.9328
0.1935                 0.9982376       -10.25048        0.0287363        80.76446       0.02845122        81.60195        0.9996392       -9.009966
0.195                  0.9981249       -10.33647       0.02898372        80.66586       0.02871734         81.5266        0.9996454       -9.087263
0.1965                 0.9980107       -10.42227       0.02923103        80.56698       0.02898417        81.44892        0.9996483       -9.164685
0.198                  0.9978954       -10.50788       0.02947822        80.46783       0.02925168        81.36893         0.999648       -9.242222
0.1995                 0.9977795        -10.5933       0.02972526        80.36856        0.0295198        81.28668        0.9996443       -9.319867
0.201                  0.9976631       -10.67852       0.02997216         80.2692       0.02978848        81.20222        0.9996374       -9.397614
0.2025                 0.9975468       -10.76355        0.0302189        80.16982       0.03005769        81.11561         0.999627       -9.475454
0.204                  0.9974307       -10.84839       0.03046548        80.07048       0.03032737        81.02687        0.9996133       -9.553379
0.2055                 0.9973154       -10.93305       0.03071189        79.97131       0.03059747        80.93611        0.9995962       -9.631381
0.207                   0.997201       -11.01752       0.03095814         79.8723       0.03086794        80.84336         0.999576       -9.709452
0.2085                 0.9970881       -11.10181       0.03120423        79.77356       0.03113874        80.74869        0.9995521       -9.787586
0.21                    0.996977       -11.18594       0.03145015        79.67515       0.03140981        80.65215        0.9995254       -9.865772
0.2115                 0.9968679        -11.2699       0.03169593        79.57712        0.0316811        80.55384        0.9994951       -9.944006
0.213                  0.9967613       -11.35372       0.03194156        79.47956       0.03195258         80.4538        0.9994615       -10.02228
0.2145                 0.9966574       -11.43739       0.03218705         79.3825       0.03222418        80.35213        0.9994249       -10.10058
0.216                  0.9965565       -11.52094       0.03243242        79.28602       0.03249588        80.24889        0.9993849       -10.17891
0.2175                  0.996459       -11.60437       0.03267768        79.19015       0.03276762        80.14414        0.9993419       -10.25726
0.219                  0.9963652        -11.6877       0.03292285        79.09495       0.03303936          80.038         0.999296       -10.33561
0.2205                 0.9962754       -11.77094       0.03316795        79.00048       0.03331106        79.93049        0.9992471       -10.41397
0.222                  0.9961897       -11.85411         0.033413        78.90675       0.03358268        79.82173        0.9991953       -10.49232
0.2235                 0.9961086       -11.93723       0.03365802        78.81386       0.03385417         79.7118        0.9991407       -10.57067
0.225                  0.9960321       -12.02031       0.03390303        78.72182        0.0341255        79.60077        0.9990833       -10.64899
0.2265                 0.9959606       -12.10338       0.03414808        78.63068       0.03439663        79.48874        0.9990233       -10.72729
0.228                  0.9958943       -12.18645       0.03439319        78.54044       0.03466753        79.37576        0.9989609       -10.80557
0.2295                 0.9958333       -12.26954       0.03463838        78.45118       0.03493816        79.26195        0.9988959       -10.88381
0.231                  0.9957778       -12.35268       0.03488369        78.36288       0.03520849        79.14737        0.9988287       -10.96201
0.2325                 0.9957279       -12.43589       0.03512917        78.27559        0.0354785         79.0321        0.9987592       -11.04016
0.234                  0.9956838       -12.51918       0.03537483        78.18934       0.03574814        78.91626        0.9986877       -11.11827
0.2355                 0.9956456       -12.60258       0.03562072        78.10412       0.03601741        78.79989        0.9986143       -11.19632
0.237                  0.9956134       -12.68612       0.03586689        78.01998       0.03628626        78.68311         0.998539       -11.27432
0.2385                 0.9955872       -12.76982       0.03611337        77.93689       0.03655469        78.56598         0.998462       -11.35225
0.24                   0.9955671       -12.85369        0.0363602         77.8549       0.03682267        78.44858        0.9983835       -11.43012
0.2415                 0.9955531       -12.93778       0.03660744        77.77398       0.03709018        78.33102        0.9983035       -11.50792
0.243                  0.9955452       -13.02209       0.03685513        77.69414       0.03735722        78.21338        0.9982222       -11.58565
0.2445                 0.9955435       -13.10666        0.0371033        77.61538       0.03762376        78.09571        0.9981398       -11.66331
0.246                  0.9955477        -13.1915         0.037352        77.53768        0.0378898        77.97811        0.9980565       -11.74089
0.2475                  0.995558       -13.27665        0.0376013        77.46105       0.03815533        77.86064        0.9979722        -11.8184
0.249                   0.995574       -13.36212       0.03785123        77.38545       0.03842034        77.74341        0.9978874       -11.89583
0.2505                 0.9955959       -13.44794       0.03810184        77.31091       0.03868483        77.62649        0.9978021       -11.97319
0.252                  0.9956234       -13.53413       0.03835317        77.23737        0.0389488        77.50994        0.9977162       -12.05046
0.2535                 0.9956564       -13.62072       0.03860529        77.16481       0.03921225        77.39384        0.9976302       -12.12766
0.255                  0.9956948       -13.70772       0.03885823         77.0932        0.0394752        77.27826        0.9975441       -12.20479
0.2565                 0.9957382       -13.79516       0.03911205        77.02254       0.03973763        77.16328        0.9974582       -12.28184
0.258                  0.9957864       -13.88306        0.0393668        76.95277       0.03999957        77.04894        0.9973726       -12.35881
0.2595                 0.9958394       -13.97145       0.03962252        76.88387       0.04026103        76.93534        0.9972873       -12.43571
0.261                  0.9958968       -14.06033       0.03987926        76.81577       0.04052202        76.82255        0.9972026       -12.51255
0.2625                 0.9959582       -14.14973       0.04013707        76.74847       0.04078256         76.7106        0.9971186       -12.58931
0.264                  0.9960235       -14.23967         0.040396        76.68191       0.04104268        76.59957        0.9970355       -12.66602
0.2655                 0.9960923       -14.33017       0.04065608        76.61605       0.04130239        76.48951        0.9969534       -12.74266
0.267                  0.9961645       -14.42123       0.04091737        76.55084       0.04156172        76.38048        0.9968726       -12.81925
0.2685                 0.9962394       -14.51288       0.04117991        76.48622       0.04182071        76.27254         0.996793       -12.89579
0.27                   0.9963168       -14.60513       0.04144373        76.42215       0.04207937        76.16574        0.9967149       -12.97228
0.2715                 0.9963962       -14.69798       0.04170889         76.3586       0.04233775        76.06011        0.9966384       -13.04874
0.273                  0.9964776       -14.79147       0.04197541        76.29546       0.04259588        75.95572        0.9965637       -13.12515
0.2745                 0.9965604       -14.88558       0.04224334        76.23272       0.04285379        75.85258        0.9964909       -13.20154
0.276                  0.9966442       -14.98034       0.04251271        76.17031       0.04311154        75.75076        0.9964201       -13.27791
0.2775                 0.9967287       -15.07575       0.04278356        76.10818       0.04336917        75.65028        0.9963514       -13.35426
0.279                  0.9968133       -15.17182       0.04305592        76.04624       0.04362671        75.55119         0.996285       -13.43061
0.2805                 0.9968977       -15.26856       0.04332981        75.98448       0.04388421        75.45352         0.996221       -13.50695
0.282                  0.9969815       -15.36596       0.04360526        75.92282       0.04414174        75.35727        0.9961595        -13.5833
0.2835                 0.9970644       -15.46402       0.04388231         75.8612       0.04439933        75.26249        0.9961006       -13.65967
0.285                  0.9971458       -15.56277       0.04416096        75.79955       0.04465706        75.16919        0.9960443       -13.73606
0.2865                 0.9972253       -15.66218       0.04444125        75.73782       0.04491495        75.07741        0.9959909       -13.81248
0.288                  0.9973027       -15.76227       0.04472319        75.67597       0.04517309        74.98713        0.9959404       -13.88895
0.2895                 0.9973773       -15.86302        0.0450068        75.61389       0.04543152        74.89839        0.9958928       -13.96547
0.291                  0.9974489       -15.96443       0.04529208         75.5516       0.04569031        74.81118        0.9958483       -14.04205
0.2925                 0.9975171       -16.06651       0.04557906        75.48898       0.04594952        74.72552        0.9958068       -14.11871
0.294                  0.9975814       -16.16923       0.04586773        75.42601       0.04620922        74.64141        0.9957686       -14.19544
0.2955                 0.9976415       -16.27261       0.04615811        75.36262       0.04646947        74.55882        0.9957335       -14.27226
0.297                  0.9976971       -16.37661       0.04645021        75.29876       0.04673034        74.47778        0.9957018       -14.34919